+ 0.1 0 2 ping 50000 ------- 1 0.0 4.0 -1 0
- 0.1 0 2 ping 50000 ------- 1 0.0 4.0 -1 0
+ 0.1 5 2 ping 60000 ------- 2 5.0 6.0 -1 1
- 0.1 5 2 ping 60000 ------- 2 5.0 6.0 -1 1
+ 0.2 0 2 ping 50000 ------- 1 0.0 4.0 -1 2
- 0.2 0 2 ping 50000 ------- 1 0.0 4.0 -1 2
+ 0.2 5 2 ping 60000 ------- 2 5.0 6.0 -1 3
- 0.2 5 2 ping 60000 ------- 2 5.0 6.0 -1 3
+ 0.3 0 2 ping 50000 ------- 1 0.0 4.0 -1 4
- 0.3 0 2 ping 50000 ------- 1 0.0 4.0 -1 4
+ 0.3 5 2 ping 60000 ------- 2 5.0 6.0 -1 5
- 0.3 5 2 ping 60000 ------- 2 5.0 6.0 -1 5
+ 0.4 0 2 ping 50000 ------- 1 0.0 4.0 -1 6
- 0.4 0 2 ping 50000 ------- 1 0.0 4.0 -1 6
+ 0.4 5 2 ping 60000 ------- 2 5.0 6.0 -1 7
- 0.4 5 2 ping 60000 ------- 2 5.0 6.0 -1 7
r 0.404 0 2 ping 50000 ------- 1 0.0 4.0 -1 0
+ 0.404 2 4 ping 50000 ------- 1 0.0 4.0 -1 0
- 0.404 2 4 ping 50000 ------- 1 0.0 4.0 -1 0
r 0.4048 5 2 ping 60000 ------- 2 5.0 6.0 -1 1
+ 0.4048 2 6 ping 60000 ------- 2 5.0 6.0 -1 1
- 0.4048 2 6 ping 60000 ------- 2 5.0 6.0 -1 1
+ 0.5 0 2 ping 50000 ------- 1 0.0 4.0 -1 8
- 0.5 0 2 ping 50000 ------- 1 0.0 4.0 -1 8
+ 0.5 5 2 ping 60000 ------- 2 5.0 6.0 -1 9
- 0.5 5 2 ping 60000 ------- 2 5.0 6.0 -1 9
r 0.504 0 2 ping 50000 ------- 1 0.0 4.0 -1 2
+ 0.504 2 4 ping 50000 ------- 1 0.0 4.0 -1 2
r 0.5048 5 2 ping 60000 ------- 2 5.0 6.0 -1 3
+ 0.5048 2 6 ping 60000 ------- 2 5.0 6.0 -1 3
+ 0.6 0 2 ping 50000 ------- 1 0.0 4.0 -1 10
- 0.6 0 2 ping 50000 ------- 1 0.0 4.0 -1 10
+ 0.6 5 2 ping 60000 ------- 2 5.0 6.0 -1 11
- 0.6 5 2 ping 60000 ------- 2 5.0 6.0 -1 11
r 0.604 0 2 ping 50000 ------- 1 0.0 4.0 -1 4
+ 0.604 2 4 ping 50000 ------- 1 0.0 4.0 -1 4
r 0.6048 5 2 ping 60000 ------- 2 5.0 6.0 -1 5
+ 0.6048 2 6 ping 60000 ------- 2 5.0 6.0 -1 5
d 0.6048 2 6 ping 60000 ------- 2 5.0 6.0 -1 5
+ 0.7 0 2 ping 50000 ------- 1 0.0 4.0 -1 12
- 0.7 0 2 ping 50000 ------- 1 0.0 4.0 -1 12
+ 0.7 5 2 ping 60000 ------- 2 5.0 6.0 -1 13
- 0.7 5 2 ping 60000 ------- 2 5.0 6.0 -1 13
r 0.704 0 2 ping 50000 ------- 1 0.0 4.0 -1 6
+ 0.704 2 4 ping 50000 ------- 1 0.0 4.0 -1 6
d 0.704 2 4 ping 50000 ------- 1 0.0 4.0 -1 6
r 0.7048 5 2 ping 60000 ------- 2 5.0 6.0 -1 7
+ 0.7048 2 6 ping 60000 ------- 2 5.0 6.0 -1 7
d 0.7048 2 6 ping 60000 ------- 2 5.0 6.0 -1 7
+ 0.8 0 2 ping 50000 ------- 1 0.0 4.0 -1 14
- 0.8 0 2 ping 50000 ------- 1 0.0 4.0 -1 14
+ 0.8 5 2 ping 60000 ------- 2 5.0 6.0 -1 15
- 0.8 5 2 ping 60000 ------- 2 5.0 6.0 -1 15
- 0.804 2 4 ping 50000 ------- 1 0.0 4.0 -1 2
r 0.804 0 2 ping 50000 ------- 1 0.0 4.0 -1 8
+ 0.804 2 4 ping 50000 ------- 1 0.0 4.0 -1 8
r 0.8048 5 2 ping 60000 ------- 2 5.0 6.0 -1 9
+ 0.8048 2 6 ping 60000 ------- 2 5.0 6.0 -1 9
d 0.8048 2 6 ping 60000 ------- 2 5.0 6.0 -1 9
- 0.8848 2 6 ping 60000 ------- 2 5.0 6.0 -1 3
+ 0.9 0 2 ping 50000 ------- 1 0.0 4.0 -1 16
- 0.9 0 2 ping 50000 ------- 1 0.0 4.0 -1 16
+ 0.9 5 2 ping 60000 ------- 2 5.0 6.0 -1 17
- 0.9 5 2 ping 60000 ------- 2 5.0 6.0 -1 17
r 0.904 0 2 ping 50000 ------- 1 0.0 4.0 -1 10
+ 0.904 2 4 ping 50000 ------- 1 0.0 4.0 -1 10
d 0.904 2 4 ping 50000 ------- 1 0.0 4.0 -1 10
r 0.9048 5 2 ping 60000 ------- 2 5.0 6.0 -1 11
+ 0.9048 2 6 ping 60000 ------- 2 5.0 6.0 -1 11
+ 1 0 2 ping 50000 ------- 1 0.0 4.0 -1 18
- 1 0 2 ping 50000 ------- 1 0.0 4.0 -1 18
+ 1 5 2 ping 60000 ------- 2 5.0 6.0 -1 19
- 1 5 2 ping 60000 ------- 2 5.0 6.0 -1 19
r 1.004 0 2 ping 50000 ------- 1 0.0 4.0 -1 12
+ 1.004 2 4 ping 50000 ------- 1 0.0 4.0 -1 12
d 1.004 2 4 ping 50000 ------- 1 0.0 4.0 -1 12
r 1.0048 5 2 ping 60000 ------- 2 5.0 6.0 -1 13
+ 1.0048 2 6 ping 60000 ------- 2 5.0 6.0 -1 13
d 1.0048 2 6 ping 60000 ------- 2 5.0 6.0 -1 13
+ 1.1 0 2 ping 50000 ------- 1 0.0 4.0 -1 20
- 1.1 0 2 ping 50000 ------- 1 0.0 4.0 -1 20
+ 1.1 5 2 ping 60000 ------- 2 5.0 6.0 -1 21
- 1.1 5 2 ping 60000 ------- 2 5.0 6.0 -1 21
r 1.104 2 4 ping 50000 ------- 1 0.0 4.0 -1 0
+ 1.104 4 2 ping 64 ------- 0 4.0 0.0 -1 22
- 1.104 4 2 ping 64 ------- 0 4.0 0.0 -1 22
r 1.104 0 2 ping 50000 ------- 1 0.0 4.0 -1 14
+ 1.104 2 4 ping 50000 ------- 1 0.0 4.0 -1 14
d 1.104 2 4 ping 50000 ------- 1 0.0 4.0 -1 14
r 1.1048 5 2 ping 60000 ------- 2 5.0 6.0 -1 15
+ 1.1048 2 6 ping 60000 ------- 2 5.0 6.0 -1 15
d 1.1048 2 6 ping 60000 ------- 2 5.0 6.0 -1 15
r 1.1848 2 6 ping 60000 ------- 2 5.0 6.0 -1 1
+ 1.1848 6 2 ping 64 ------- 0 6.0 5.0 -1 23
- 1.1848 6 2 ping 64 ------- 0 6.0 5.0 -1 23
+ 1.2 0 2 ping 50000 ------- 1 0.0 4.0 -1 24
- 1.2 0 2 ping 50000 ------- 1 0.0 4.0 -1 24
+ 1.2 5 2 ping 60000 ------- 2 5.0 6.0 -1 25
- 1.2 5 2 ping 60000 ------- 2 5.0 6.0 -1 25
r 1.204 0 2 ping 50000 ------- 1 0.0 4.0 -1 16
+ 1.204 2 4 ping 50000 ------- 1 0.0 4.0 -1 16
d 1.204 2 4 ping 50000 ------- 1 0.0 4.0 -1 16
- 1.204 2 4 ping 50000 ------- 1 0.0 4.0 -1 4
r 1.2048 5 2 ping 60000 ------- 2 5.0 6.0 -1 17
+ 1.2048 2 6 ping 60000 ------- 2 5.0 6.0 -1 17
d 1.2048 2 6 ping 60000 ------- 2 5.0 6.0 -1 17
+ 1.3 0 2 ping 50000 ------- 1 0.0 4.0 -1 26
- 1.3 0 2 ping 50000 ------- 1 0.0 4.0 -1 26
+ 1.3 5 2 ping 60000 ------- 2 5.0 6.0 -1 27
- 1.3 5 2 ping 60000 ------- 2 5.0 6.0 -1 27
r 1.304 0 2 ping 50000 ------- 1 0.0 4.0 -1 18
+ 1.304 2 4 ping 50000 ------- 1 0.0 4.0 -1 18
r 1.3048 5 2 ping 60000 ------- 2 5.0 6.0 -1 19
+ 1.3048 2 6 ping 60000 ------- 2 5.0 6.0 -1 19
d 1.3048 2 6 ping 60000 ------- 2 5.0 6.0 -1 19
- 1.3648 2 6 ping 60000 ------- 2 5.0 6.0 -1 11
+ 1.4 0 2 ping 50000 ------- 1 0.0 4.0 -1 28
- 1.4 0 2 ping 50000 ------- 1 0.0 4.0 -1 28
+ 1.4 5 2 ping 60000 ------- 2 5.0 6.0 -1 29
- 1.4 5 2 ping 60000 ------- 2 5.0 6.0 -1 29
r 1.404 0 2 ping 50000 ------- 1 0.0 4.0 -1 20
+ 1.404 2 4 ping 50000 ------- 1 0.0 4.0 -1 20
d 1.404 2 4 ping 50000 ------- 1 0.0 4.0 -1 20
r 1.404512 4 2 ping 64 ------- 0 4.0 0.0 -1 22
+ 1.404512 2 0 ping 64 ------- 0 4.0 0.0 -1 22
- 1.404512 2 0 ping 64 ------- 0 4.0 0.0 -1 22
r 1.4048 5 2 ping 60000 ------- 2 5.0 6.0 -1 21
+ 1.4048 2 6 ping 60000 ------- 2 5.0 6.0 -1 21
r 1.485312 6 2 ping 64 ------- 0 6.0 5.0 -1 23
+ 1.485312 2 5 ping 64 ------- 0 6.0 5.0 -1 23
- 1.485312 2 5 ping 64 ------- 0 6.0 5.0 -1 23
+ 1.5 0 2 ping 50000 ------- 1 0.0 4.0 -1 30
- 1.5 0 2 ping 50000 ------- 1 0.0 4.0 -1 30
+ 1.5 5 2 ping 60000 ------- 2 5.0 6.0 -1 31
- 1.5 5 2 ping 60000 ------- 2 5.0 6.0 -1 31
r 1.504 2 4 ping 50000 ------- 1 0.0 4.0 -1 2
+ 1.504 4 2 ping 64 ------- 0 4.0 0.0 -1 32
- 1.504 4 2 ping 64 ------- 0 4.0 0.0 -1 32
r 1.504 0 2 ping 50000 ------- 1 0.0 4.0 -1 24
+ 1.504 2 4 ping 50000 ------- 1 0.0 4.0 -1 24
d 1.504 2 4 ping 50000 ------- 1 0.0 4.0 -1 24
r 1.5048 5 2 ping 60000 ------- 2 5.0 6.0 -1 25
+ 1.5048 2 6 ping 60000 ------- 2 5.0 6.0 -1 25
d 1.5048 2 6 ping 60000 ------- 2 5.0 6.0 -1 25
+ 1.6 0 2 ping 50000 ------- 1 0.0 4.0 -1 33
- 1.6 0 2 ping 50000 ------- 1 0.0 4.0 -1 33
+ 1.6 5 2 ping 60000 ------- 2 5.0 6.0 -1 34
- 1.6 5 2 ping 60000 ------- 2 5.0 6.0 -1 34
- 1.604 2 4 ping 50000 ------- 1 0.0 4.0 -1 8
r 1.604 0 2 ping 50000 ------- 1 0.0 4.0 -1 26
+ 1.604 2 4 ping 50000 ------- 1 0.0 4.0 -1 26
r 1.6048 5 2 ping 60000 ------- 2 5.0 6.0 -1 27
+ 1.6048 2 6 ping 60000 ------- 2 5.0 6.0 -1 27
d 1.6048 2 6 ping 60000 ------- 2 5.0 6.0 -1 27
r 1.6648 2 6 ping 60000 ------- 2 5.0 6.0 -1 3
+ 1.6648 6 2 ping 64 ------- 0 6.0 5.0 -1 35
- 1.6648 6 2 ping 64 ------- 0 6.0 5.0 -1 35
+ 1.7 0 2 ping 50000 ------- 1 0.0 4.0 -1 36
- 1.7 0 2 ping 50000 ------- 1 0.0 4.0 -1 36
+ 1.7 5 2 ping 60000 ------- 2 5.0 6.0 -1 37
- 1.7 5 2 ping 60000 ------- 2 5.0 6.0 -1 37
r 1.704 0 2 ping 50000 ------- 1 0.0 4.0 -1 28
+ 1.704 2 4 ping 50000 ------- 1 0.0 4.0 -1 28
d 1.704 2 4 ping 50000 ------- 1 0.0 4.0 -1 28
r 1.704517 2 0 ping 64 ------- 0 4.0 0.0 -1 22
r 1.7048 5 2 ping 60000 ------- 2 5.0 6.0 -1 29
+ 1.7048 2 6 ping 60000 ------- 2 5.0 6.0 -1 29
d 1.7048 2 6 ping 60000 ------- 2 5.0 6.0 -1 29
r 1.785317 2 5 ping 64 ------- 0 6.0 5.0 -1 23
+ 1.8 0 2 ping 50000 ------- 1 0.0 4.0 -1 38
- 1.8 0 2 ping 50000 ------- 1 0.0 4.0 -1 38
+ 1.8 5 2 ping 60000 ------- 2 5.0 6.0 -1 39
- 1.8 5 2 ping 60000 ------- 2 5.0 6.0 -1 39
r 1.804 0 2 ping 50000 ------- 1 0.0 4.0 -1 30
+ 1.804 2 4 ping 50000 ------- 1 0.0 4.0 -1 30
d 1.804 2 4 ping 50000 ------- 1 0.0 4.0 -1 30
r 1.804512 4 2 ping 64 ------- 0 4.0 0.0 -1 32
+ 1.804512 2 0 ping 64 ------- 0 4.0 0.0 -1 32
- 1.804512 2 0 ping 64 ------- 0 4.0 0.0 -1 32
r 1.8048 5 2 ping 60000 ------- 2 5.0 6.0 -1 31
+ 1.8048 2 6 ping 60000 ------- 2 5.0 6.0 -1 31
d 1.8048 2 6 ping 60000 ------- 2 5.0 6.0 -1 31
- 1.8448 2 6 ping 60000 ------- 2 5.0 6.0 -1 21
r 1.904 2 4 ping 50000 ------- 1 0.0 4.0 -1 4
+ 1.904 4 2 ping 64 ------- 0 4.0 0.0 -1 40
- 1.904 4 2 ping 64 ------- 0 4.0 0.0 -1 40
r 1.904 0 2 ping 50000 ------- 1 0.0 4.0 -1 33
+ 1.904 2 4 ping 50000 ------- 1 0.0 4.0 -1 33
d 1.904 2 4 ping 50000 ------- 1 0.0 4.0 -1 33
r 1.9048 5 2 ping 60000 ------- 2 5.0 6.0 -1 34
+ 1.9048 2 6 ping 60000 ------- 2 5.0 6.0 -1 34
r 1.965312 6 2 ping 64 ------- 0 6.0 5.0 -1 35
+ 1.965312 2 5 ping 64 ------- 0 6.0 5.0 -1 35
- 1.965312 2 5 ping 64 ------- 0 6.0 5.0 -1 35
- 2.004 2 4 ping 50000 ------- 1 0.0 4.0 -1 18
r 2.004 0 2 ping 50000 ------- 1 0.0 4.0 -1 36
+ 2.004 2 4 ping 50000 ------- 1 0.0 4.0 -1 36
r 2.0048 5 2 ping 60000 ------- 2 5.0 6.0 -1 37
+ 2.0048 2 6 ping 60000 ------- 2 5.0 6.0 -1 37
d 2.0048 2 6 ping 60000 ------- 2 5.0 6.0 -1 37
r 2.104 0 2 ping 50000 ------- 1 0.0 4.0 -1 38
+ 2.104 2 4 ping 50000 ------- 1 0.0 4.0 -1 38
d 2.104 2 4 ping 50000 ------- 1 0.0 4.0 -1 38
r 2.104517 2 0 ping 64 ------- 0 4.0 0.0 -1 32
r 2.1048 5 2 ping 60000 ------- 2 5.0 6.0 -1 39
+ 2.1048 2 6 ping 60000 ------- 2 5.0 6.0 -1 39
d 2.1048 2 6 ping 60000 ------- 2 5.0 6.0 -1 39
r 2.1448 2 6 ping 60000 ------- 2 5.0 6.0 -1 11
+ 2.1448 6 2 ping 64 ------- 0 6.0 5.0 -1 41
- 2.1448 6 2 ping 64 ------- 0 6.0 5.0 -1 41
r 2.204512 4 2 ping 64 ------- 0 4.0 0.0 -1 40
+ 2.204512 2 0 ping 64 ------- 0 4.0 0.0 -1 40
- 2.204512 2 0 ping 64 ------- 0 4.0 0.0 -1 40
r 2.265317 2 5 ping 64 ------- 0 6.0 5.0 -1 35
r 2.304 2 4 ping 50000 ------- 1 0.0 4.0 -1 8
+ 2.304 4 2 ping 64 ------- 0 4.0 0.0 -1 42
- 2.304 4 2 ping 64 ------- 0 4.0 0.0 -1 42
- 2.3248 2 6 ping 60000 ------- 2 5.0 6.0 -1 34
- 2.404 2 4 ping 50000 ------- 1 0.0 4.0 -1 26
r 2.445312 6 2 ping 64 ------- 0 6.0 5.0 -1 41
+ 2.445312 2 5 ping 64 ------- 0 6.0 5.0 -1 41
- 2.445312 2 5 ping 64 ------- 0 6.0 5.0 -1 41
r 2.504517 2 0 ping 64 ------- 0 4.0 0.0 -1 40
r 2.604512 4 2 ping 64 ------- 0 4.0 0.0 -1 42
+ 2.604512 2 0 ping 64 ------- 0 4.0 0.0 -1 42
- 2.604512 2 0 ping 64 ------- 0 4.0 0.0 -1 42
r 2.6248 2 6 ping 60000 ------- 2 5.0 6.0 -1 21
+ 2.6248 6 2 ping 64 ------- 0 6.0 5.0 -1 43
- 2.6248 6 2 ping 64 ------- 0 6.0 5.0 -1 43
r 2.704 2 4 ping 50000 ------- 1 0.0 4.0 -1 18
+ 2.704 4 2 ping 64 ------- 0 4.0 0.0 -1 44
- 2.704 4 2 ping 64 ------- 0 4.0 0.0 -1 44
r 2.745317 2 5 ping 64 ------- 0 6.0 5.0 -1 41
- 2.804 2 4 ping 50000 ------- 1 0.0 4.0 -1 36
r 2.904517 2 0 ping 64 ------- 0 4.0 0.0 -1 42
r 2.925312 6 2 ping 64 ------- 0 6.0 5.0 -1 43
+ 2.925312 2 5 ping 64 ------- 0 6.0 5.0 -1 43
- 2.925312 2 5 ping 64 ------- 0 6.0 5.0 -1 43
r 3.004512 4 2 ping 64 ------- 0 4.0 0.0 -1 44
+ 3.004512 2 0 ping 64 ------- 0 4.0 0.0 -1 44
- 3.004512 2 0 ping 64 ------- 0 4.0 0.0 -1 44
r 3.104 2 4 ping 50000 ------- 1 0.0 4.0 -1 26
+ 3.104 4 2 ping 64 ------- 0 4.0 0.0 -1 45
- 3.104 4 2 ping 64 ------- 0 4.0 0.0 -1 45
r 3.1048 2 6 ping 60000 ------- 2 5.0 6.0 -1 34
+ 3.1048 6 2 ping 64 ------- 0 6.0 5.0 -1 46
- 3.1048 6 2 ping 64 ------- 0 6.0 5.0 -1 46
r 3.225317 2 5 ping 64 ------- 0 6.0 5.0 -1 43
r 3.304517 2 0 ping 64 ------- 0 4.0 0.0 -1 44
r 3.404512 4 2 ping 64 ------- 0 4.0 0.0 -1 45
+ 3.404512 2 0 ping 64 ------- 0 4.0 0.0 -1 45
- 3.404512 2 0 ping 64 ------- 0 4.0 0.0 -1 45
r 3.405312 6 2 ping 64 ------- 0 6.0 5.0 -1 46
+ 3.405312 2 5 ping 64 ------- 0 6.0 5.0 -1 46
- 3.405312 2 5 ping 64 ------- 0 6.0 5.0 -1 46
r 3.504 2 4 ping 50000 ------- 1 0.0 4.0 -1 36
+ 3.504 4 2 ping 64 ------- 0 4.0 0.0 -1 47
- 3.504 4 2 ping 64 ------- 0 4.0 0.0 -1 47
r 3.704517 2 0 ping 64 ------- 0 4.0 0.0 -1 45
r 3.705317 2 5 ping 64 ------- 0 6.0 5.0 -1 46
r 3.804512 4 2 ping 64 ------- 0 4.0 0.0 -1 47
+ 3.804512 2 0 ping 64 ------- 0 4.0 0.0 -1 47
- 3.804512 2 0 ping 64 ------- 0 4.0 0.0 -1 47
r 4.104517 2 0 ping 64 ------- 0 4.0 0.0 -1 47
