s 10.000000000 _4_ AGT  --- 4 tcp 40 [0 0 0 0] ------- [4194306:0 0:1 32 0] [0 0] 0 0
+ 10.005076 2 1 tcp 60 ------- 2 1.0.2.0 0.0.0.1 0 4
- 10.005076 2 1 tcp 60 ------- 2 1.0.2.0 0.0.0.1 0 4
r 10.007172 2 1 tcp 60 ------- 2 1.0.2.0 0.0.0.1 0 4
+ 10.007172 1 0 tcp 60 ------- 2 1.0.2.0 0.0.0.1 0 4
- 10.007172 1 0 tcp 60 ------- 2 1.0.2.0 0.0.0.1 0 4
r 10.009268 1 0 tcp 60 ------- 2 1.0.2.0 0.0.0.1 0 4
+ 10.009268 0 1 ack 40 ------- 2 0.0.0.1 1.0.2.0 0 5
- 10.009268 0 1 ack 40 ------- 2 0.0.0.1 1.0.2.0 0 5
r 10.011332 0 1 ack 40 ------- 2 0.0.0.1 1.0.2.0 0 5
+ 10.011332 1 2 ack 40 ------- 2 0.0.0.1 1.0.2.0 0 5
- 10.011332 1 2 ack 40 ------- 2 0.0.0.1 1.0.2.0 0 5
r 10.013396 1 2 ack 40 ------- 2 0.0.0.1 1.0.2.0 0 5
r 10.015357835 _4_ AGT  --- 5 ack 40 [13a 2 0 800] ------- [0:1 4194306:0 29 4194306] [0 0] 1 0
s 10.015357835 _4_ AGT  --- 6 tcp 1040 [0 0 0 0] ------- [4194306:0 0:1 32 0] [1 0] 0 0
s 10.015357835 _4_ AGT  --- 7 tcp 1040 [0 0 0 0] ------- [4194306:0 0:1 32 0] [2 0] 0 0
+ 10.025884 2 1 tcp 1060 ------- 2 1.0.2.0 0.0.0.1 1 6
- 10.025884 2 1 tcp 1060 ------- 2 1.0.2.0 0.0.0.1 1 6
r 10.02958 2 1 tcp 1060 ------- 2 1.0.2.0 0.0.0.1 1 6
+ 10.02958 1 0 tcp 1060 ------- 2 1.0.2.0 0.0.0.1 1 6
- 10.02958 1 0 tcp 1060 ------- 2 1.0.2.0 0.0.0.1 1 6
r 10.033276 1 0 tcp 1060 ------- 2 1.0.2.0 0.0.0.1 1 6
+ 10.033276 0 1 ack 40 ------- 2 0.0.0.1 1.0.2.0 1 8
- 10.033276 0 1 ack 40 ------- 2 0.0.0.1 1.0.2.0 1 8
r 10.03534 0 1 ack 40 ------- 2 0.0.0.1 1.0.2.0 1 8
+ 10.03534 1 2 ack 40 ------- 2 0.0.0.1 1.0.2.0 1 8
- 10.03534 1 2 ack 40 ------- 2 0.0.0.1 1.0.2.0 1 8
+ 10.035911 2 1 tcp 1060 ------- 2 1.0.2.0 0.0.0.1 2 7
- 10.035911 2 1 tcp 1060 ------- 2 1.0.2.0 0.0.0.1 2 7
r 10.037404 1 2 ack 40 ------- 2 0.0.0.1 1.0.2.0 1 8
r 10.039325937 _4_ AGT  --- 8 ack 40 [13a 2 0 800] ------- [0:1 4194306:0 29 4194306] [1 0] 1 0
s 10.039325937 _4_ AGT  --- 9 tcp 1040 [0 0 0 0] ------- [4194306:0 0:1 32 0] [3 0] 0 0
s 10.039325937 _4_ AGT  --- 10 tcp 1040 [0 0 0 0] ------- [4194306:0 0:1 32 0] [4 0] 0 0
r 10.039607 2 1 tcp 1060 ------- 2 1.0.2.0 0.0.0.1 2 7
+ 10.039607 1 0 tcp 1060 ------- 2 1.0.2.0 0.0.0.1 2 7
- 10.039607 1 0 tcp 1060 ------- 2 1.0.2.0 0.0.0.1 2 7
r 10.043303 1 0 tcp 1060 ------- 2 1.0.2.0 0.0.0.1 2 7
+ 10.043303 0 1 ack 40 ------- 2 0.0.0.1 1.0.2.0 2 11
- 10.043303 0 1 ack 40 ------- 2 0.0.0.1 1.0.2.0 2 11
r 10.045367 0 1 ack 40 ------- 2 0.0.0.1 1.0.2.0 2 11
+ 10.045367 1 2 ack 40 ------- 2 0.0.0.1 1.0.2.0 2 11
- 10.045367 1 2 ack 40 ------- 2 0.0.0.1 1.0.2.0 2 11
r 10.047431 1 2 ack 40 ------- 2 0.0.0.1 1.0.2.0 2 11
+ 10.049452 2 1 tcp 1060 ------- 2 1.0.2.0 0.0.0.1 3 9
- 10.049452 2 1 tcp 1060 ------- 2 1.0.2.0 0.0.0.1 3 9
r 10.053148 2 1 tcp 1060 ------- 2 1.0.2.0 0.0.0.1 3 9
+ 10.053148 1 0 tcp 1060 ------- 2 1.0.2.0 0.0.0.1 3 9
- 10.053148 1 0 tcp 1060 ------- 2 1.0.2.0 0.0.0.1 3 9
r 10.056844 1 0 tcp 1060 ------- 2 1.0.2.0 0.0.0.1 3 9
+ 10.056844 0 1 ack 40 ------- 2 0.0.0.1 1.0.2.0 3 12
- 10.056844 0 1 ack 40 ------- 2 0.0.0.1 1.0.2.0 3 12
r 10.058908 0 1 ack 40 ------- 2 0.0.0.1 1.0.2.0 3 12
+ 10.058908 1 2 ack 40 ------- 2 0.0.0.1 1.0.2.0 3 12
- 10.058908 1 2 ack 40 ------- 2 0.0.0.1 1.0.2.0 3 12
+ 10.059639 2 1 tcp 1060 ------- 2 1.0.2.0 0.0.0.1 4 10
- 10.059639 2 1 tcp 1060 ------- 2 1.0.2.0 0.0.0.1 4 10
r 10.060972 1 2 ack 40 ------- 2 0.0.0.1 1.0.2.0 3 12
r 10.061544772 _4_ AGT  --- 11 ack 40 [13a 2 0 800] ------- [0:1 4194306:0 29 4194306] [2 0] 1 0
s 10.061544772 _4_ AGT  --- 13 tcp 1040 [0 0 0 0] ------- [4194306:0 0:1 32 0] [5 0] 0 0
s 10.061544772 _4_ AGT  --- 14 tcp 1040 [0 0 0 0] ------- [4194306:0 0:1 32 0] [6 0] 0 0
r 10.063335 2 1 tcp 1060 ------- 2 1.0.2.0 0.0.0.1 4 10
+ 10.063335 1 0 tcp 1060 ------- 2 1.0.2.0 0.0.0.1 4 10
- 10.063335 1 0 tcp 1060 ------- 2 1.0.2.0 0.0.0.1 4 10
r 10.067031 1 0 tcp 1060 ------- 2 1.0.2.0 0.0.0.1 4 10
+ 10.067031 0 1 ack 40 ------- 2 0.0.0.1 1.0.2.0 4 15
- 10.067031 0 1 ack 40 ------- 2 0.0.0.1 1.0.2.0 4 15
r 10.069095 0 1 ack 40 ------- 2 0.0.0.1 1.0.2.0 4 15
+ 10.069095 1 2 ack 40 ------- 2 0.0.0.1 1.0.2.0 4 15
- 10.069095 1 2 ack 40 ------- 2 0.0.0.1 1.0.2.0 4 15
r 10.071159 1 2 ack 40 ------- 2 0.0.0.1 1.0.2.0 4 15
+ 10.071551 2 1 tcp 1060 ------- 2 1.0.2.0 0.0.0.1 5 13
- 10.071551 2 1 tcp 1060 ------- 2 1.0.2.0 0.0.0.1 5 13
r 10.075247 2 1 tcp 1060 ------- 2 1.0.2.0 0.0.0.1 5 13
+ 10.075247 1 0 tcp 1060 ------- 2 1.0.2.0 0.0.0.1 5 13
- 10.075247 1 0 tcp 1060 ------- 2 1.0.2.0 0.0.0.1 5 13
r 10.078943 1 0 tcp 1060 ------- 2 1.0.2.0 0.0.0.1 5 13
+ 10.078943 0 1 ack 40 ------- 2 0.0.0.1 1.0.2.0 5 16
- 10.078943 0 1 ack 40 ------- 2 0.0.0.1 1.0.2.0 5 16
r 10.081007 0 1 ack 40 ------- 2 0.0.0.1 1.0.2.0 5 16
+ 10.081007 1 2 ack 40 ------- 2 0.0.0.1 1.0.2.0 5 16
- 10.081007 1 2 ack 40 ------- 2 0.0.0.1 1.0.2.0 5 16
+ 10.081758 2 1 tcp 1060 ------- 2 1.0.2.0 0.0.0.1 6 14
- 10.081758 2 1 tcp 1060 ------- 2 1.0.2.0 0.0.0.1 6 14
r 10.083071 1 2 ack 40 ------- 2 0.0.0.1 1.0.2.0 5 16
r 10.083883607 _4_ AGT  --- 12 ack 40 [13a 2 0 800] ------- [0:1 4194306:0 29 4194306] [3 0] 1 0
s 10.083883607 _4_ AGT  --- 17 tcp 1040 [0 0 0 0] ------- [4194306:0 0:1 32 0] [7 0] 0 0
s 10.083883607 _4_ AGT  --- 18 tcp 1040 [0 0 0 0] ------- [4194306:0 0:1 32 0] [8 0] 0 0
r 10.085454 2 1 tcp 1060 ------- 2 1.0.2.0 0.0.0.1 6 14
+ 10.085454 1 0 tcp 1060 ------- 2 1.0.2.0 0.0.0.1 6 14
- 10.085454 1 0 tcp 1060 ------- 2 1.0.2.0 0.0.0.1 6 14
r 10.085770341 _4_ AGT  --- 15 ack 40 [13a 2 0 800] ------- [0:1 4194306:0 29 4194306] [4 0] 1 0
s 10.085770341 _4_ AGT  --- 19 tcp 1040 [0 0 0 0] ------- [4194306:0 0:1 32 0] [9 0] 0 0
s 10.085770341 _4_ AGT  --- 20 tcp 1040 [0 0 0 0] ------- [4194306:0 0:1 32 0] [10 0] 0 0
r 10.087717076 _4_ AGT  --- 16 ack 40 [13a 2 0 800] ------- [0:1 4194306:0 29 4194306] [5 0] 1 0
s 10.087717076 _4_ AGT  --- 21 tcp 1040 [0 0 0 0] ------- [4194306:0 0:1 32 0] [11 0] 0 0
s 10.087717076 _4_ AGT  --- 22 tcp 1040 [0 0 0 0] ------- [4194306:0 0:1 32 0] [12 0] 0 0
r 10.08915 1 0 tcp 1060 ------- 2 1.0.2.0 0.0.0.1 6 14
+ 10.08915 0 1 ack 40 ------- 2 0.0.0.1 1.0.2.0 6 23
- 10.08915 0 1 ack 40 ------- 2 0.0.0.1 1.0.2.0 6 23
r 10.091214 0 1 ack 40 ------- 2 0.0.0.1 1.0.2.0 6 23
+ 10.091214 1 2 ack 40 ------- 2 0.0.0.1 1.0.2.0 6 23
- 10.091214 1 2 ack 40 ------- 2 0.0.0.1 1.0.2.0 6 23
r 10.093278 1 2 ack 40 ------- 2 0.0.0.1 1.0.2.0 6 23
+ 10.098103 2 1 tcp 1060 ------- 2 1.0.2.0 0.0.0.1 7 17
- 10.098103 2 1 tcp 1060 ------- 2 1.0.2.0 0.0.0.1 7 17
r 10.101799 2 1 tcp 1060 ------- 2 1.0.2.0 0.0.0.1 7 17
+ 10.101799 1 0 tcp 1060 ------- 2 1.0.2.0 0.0.0.1 7 17
- 10.101799 1 0 tcp 1060 ------- 2 1.0.2.0 0.0.0.1 7 17
r 10.105495 1 0 tcp 1060 ------- 2 1.0.2.0 0.0.0.1 7 17
+ 10.105495 0 1 ack 40 ------- 2 0.0.0.1 1.0.2.0 7 24
- 10.105495 0 1 ack 40 ------- 2 0.0.0.1 1.0.2.0 7 24
r 10.107559 0 1 ack 40 ------- 2 0.0.0.1 1.0.2.0 7 24
+ 10.107559 1 2 ack 40 ------- 2 0.0.0.1 1.0.2.0 7 24
- 10.107559 1 2 ack 40 ------- 2 0.0.0.1 1.0.2.0 7 24
+ 10.10837 2 1 tcp 1060 ------- 2 1.0.2.0 0.0.0.1 8 18
- 10.10837 2 1 tcp 1060 ------- 2 1.0.2.0 0.0.0.1 8 18
r 10.109623 1 2 ack 40 ------- 2 0.0.0.1 1.0.2.0 7 24
r 10.112066 2 1 tcp 1060 ------- 2 1.0.2.0 0.0.0.1 8 18
+ 10.112066 1 0 tcp 1060 ------- 2 1.0.2.0 0.0.0.1 8 18
- 10.112066 1 0 tcp 1060 ------- 2 1.0.2.0 0.0.0.1 8 18
r 10.115762 1 0 tcp 1060 ------- 2 1.0.2.0 0.0.0.1 8 18
+ 10.115762 0 1 ack 40 ------- 2 0.0.0.1 1.0.2.0 8 25
- 10.115762 0 1 ack 40 ------- 2 0.0.0.1 1.0.2.0 8 25
r 10.117826 0 1 ack 40 ------- 2 0.0.0.1 1.0.2.0 8 25
+ 10.117826 1 2 ack 40 ------- 2 0.0.0.1 1.0.2.0 8 25
- 10.117826 1 2 ack 40 ------- 2 0.0.0.1 1.0.2.0 8 25
+ 10.118537 2 1 tcp 1060 ------- 2 1.0.2.0 0.0.0.1 9 19
- 10.118537 2 1 tcp 1060 ------- 2 1.0.2.0 0.0.0.1 9 19
r 10.11989 1 2 ack 40 ------- 2 0.0.0.1 1.0.2.0 8 25
r 10.120402645 _4_ AGT  --- 23 ack 40 [13a 2 0 800] ------- [0:1 4194306:0 29 4194306] [6 0] 1 0
s 10.120402645 _4_ AGT  --- 26 tcp 1040 [0 0 0 0] ------- [4194306:0 0:1 32 0] [13 0] 0 0
s 10.120402645 _4_ AGT  --- 27 tcp 1040 [0 0 0 0] ------- [4194306:0 0:1 32 0] [14 0] 0 0
r 10.122233 2 1 tcp 1060 ------- 2 1.0.2.0 0.0.0.1 9 19
+ 10.122233 1 0 tcp 1060 ------- 2 1.0.2.0 0.0.0.1 9 19
- 10.122233 1 0 tcp 1060 ------- 2 1.0.2.0 0.0.0.1 9 19
r 10.125929 1 0 tcp 1060 ------- 2 1.0.2.0 0.0.0.1 9 19
+ 10.125929 0 1 ack 40 ------- 2 0.0.0.1 1.0.2.0 9 28
- 10.125929 0 1 ack 40 ------- 2 0.0.0.1 1.0.2.0 9 28
r 10.127993 0 1 ack 40 ------- 2 0.0.0.1 1.0.2.0 9 28
+ 10.127993 1 2 ack 40 ------- 2 0.0.0.1 1.0.2.0 9 28
- 10.127993 1 2 ack 40 ------- 2 0.0.0.1 1.0.2.0 9 28
r 10.130057 1 2 ack 40 ------- 2 0.0.0.1 1.0.2.0 9 28
+ 10.130629 2 1 tcp 1060 ------- 2 1.0.2.0 0.0.0.1 10 20
- 10.130629 2 1 tcp 1060 ------- 2 1.0.2.0 0.0.0.1 10 20
r 10.134325 2 1 tcp 1060 ------- 2 1.0.2.0 0.0.0.1 10 20
+ 10.134325 1 0 tcp 1060 ------- 2 1.0.2.0 0.0.0.1 10 20
- 10.134325 1 0 tcp 1060 ------- 2 1.0.2.0 0.0.0.1 10 20
r 10.138021 1 0 tcp 1060 ------- 2 1.0.2.0 0.0.0.1 10 20
+ 10.138021 0 1 ack 40 ------- 2 0.0.0.1 1.0.2.0 10 29
- 10.138021 0 1 ack 40 ------- 2 0.0.0.1 1.0.2.0 10 29
r 10.140085 0 1 ack 40 ------- 2 0.0.0.1 1.0.2.0 10 29
+ 10.140085 1 2 ack 40 ------- 2 0.0.0.1 1.0.2.0 10 29
- 10.140085 1 2 ack 40 ------- 2 0.0.0.1 1.0.2.0 10 29
+ 10.140615 2 1 tcp 1060 ------- 2 1.0.2.0 0.0.0.1 11 21
- 10.140615 2 1 tcp 1060 ------- 2 1.0.2.0 0.0.0.1 11 21
r 10.142149 1 2 ack 40 ------- 2 0.0.0.1 1.0.2.0 10 29
r 10.144311 2 1 tcp 1060 ------- 2 1.0.2.0 0.0.0.1 11 21
+ 10.144311 1 0 tcp 1060 ------- 2 1.0.2.0 0.0.0.1 11 21
- 10.144311 1 0 tcp 1060 ------- 2 1.0.2.0 0.0.0.1 11 21
r 10.148007 1 0 tcp 1060 ------- 2 1.0.2.0 0.0.0.1 11 21
+ 10.148007 0 1 ack 40 ------- 2 0.0.0.1 1.0.2.0 11 30
- 10.148007 0 1 ack 40 ------- 2 0.0.0.1 1.0.2.0 11 30
r 10.150071 0 1 ack 40 ------- 2 0.0.0.1 1.0.2.0 11 30
+ 10.150071 1 2 ack 40 ------- 2 0.0.0.1 1.0.2.0 11 30
- 10.150071 1 2 ack 40 ------- 2 0.0.0.1 1.0.2.0 11 30
+ 10.150822 2 1 tcp 1060 ------- 2 1.0.2.0 0.0.0.1 12 22
- 10.150822 2 1 tcp 1060 ------- 2 1.0.2.0 0.0.0.1 12 22
r 10.152135 1 2 ack 40 ------- 2 0.0.0.1 1.0.2.0 11 30
r 10.152688215 _4_ AGT  --- 24 ack 40 [13a 2 0 800] ------- [0:1 4194306:0 29 4194306] [7 0] 1 0
s 10.152688215 _4_ AGT  --- 31 tcp 1040 [0 0 0 0] ------- [4194306:0 0:1 32 0] [15 0] 0 0
s 10.152688215 _4_ AGT  --- 32 tcp 1040 [0 0 0 0] ------- [4194306:0 0:1 32 0] [16 0] 0 0
r 10.154518 2 1 tcp 1060 ------- 2 1.0.2.0 0.0.0.1 12 22
+ 10.154518 1 0 tcp 1060 ------- 2 1.0.2.0 0.0.0.1 12 22
- 10.154518 1 0 tcp 1060 ------- 2 1.0.2.0 0.0.0.1 12 22
r 10.154674949 _4_ AGT  --- 25 ack 40 [13a 2 0 800] ------- [0:1 4194306:0 29 4194306] [8 0] 1 0
s 10.154674949 _4_ AGT  --- 33 tcp 1040 [0 0 0 0] ------- [4194306:0 0:1 32 0] [17 0] 0 0
s 10.154674949 _4_ AGT  --- 34 tcp 1040 [0 0 0 0] ------- [4194306:0 0:1 32 0] [18 0] 0 0
r 10.158214 1 0 tcp 1060 ------- 2 1.0.2.0 0.0.0.1 12 22
+ 10.158214 0 1 ack 40 ------- 2 0.0.0.1 1.0.2.0 12 35
- 10.158214 0 1 ack 40 ------- 2 0.0.0.1 1.0.2.0 12 35
r 10.160278 0 1 ack 40 ------- 2 0.0.0.1 1.0.2.0 12 35
+ 10.160278 1 2 ack 40 ------- 2 0.0.0.1 1.0.2.0 12 35
- 10.160278 1 2 ack 40 ------- 2 0.0.0.1 1.0.2.0 12 35
r 10.162342 1 2 ack 40 ------- 2 0.0.0.1 1.0.2.0 12 35
+ 10.164781 2 1 tcp 1060 ------- 2 1.0.2.0 0.0.0.1 13 26
- 10.164781 2 1 tcp 1060 ------- 2 1.0.2.0 0.0.0.1 13 26
r 10.168477 2 1 tcp 1060 ------- 2 1.0.2.0 0.0.0.1 13 26
+ 10.168477 1 0 tcp 1060 ------- 2 1.0.2.0 0.0.0.1 13 26
- 10.168477 1 0 tcp 1060 ------- 2 1.0.2.0 0.0.0.1 13 26
r 10.172173 1 0 tcp 1060 ------- 2 1.0.2.0 0.0.0.1 13 26
+ 10.172173 0 1 ack 40 ------- 2 0.0.0.1 1.0.2.0 13 36
- 10.172173 0 1 ack 40 ------- 2 0.0.0.1 1.0.2.0 13 36
r 10.174237 0 1 ack 40 ------- 2 0.0.0.1 1.0.2.0 13 36
+ 10.174237 1 2 ack 40 ------- 2 0.0.0.1 1.0.2.0 13 36
- 10.174237 1 2 ack 40 ------- 2 0.0.0.1 1.0.2.0 13 36
+ 10.174848 2 1 tcp 1060 ------- 2 1.0.2.0 0.0.0.1 14 27
- 10.174848 2 1 tcp 1060 ------- 2 1.0.2.0 0.0.0.1 14 27
r 10.176301 1 2 ack 40 ------- 2 0.0.0.1 1.0.2.0 13 36
r 10.176693784 _4_ AGT  --- 28 ack 40 [13a 2 0 800] ------- [0:1 4194306:0 29 4194306] [9 0] 1 0
s 10.176693784 _4_ AGT  --- 37 tcp 1040 [0 0 0 0] ------- [4194306:0 0:1 32 0] [19 0] 0 0
s 10.176693784 _4_ AGT  --- 38 tcp 1040 [0 0 0 0] ------- [4194306:0 0:1 32 0] [20 0] 0 0
r 10.178520518 _4_ AGT  --- 29 ack 40 [13a 2 0 800] ------- [0:1 4194306:0 29 4194306] [10 0] 1 0
s 10.178520518 _4_ AGT  --- 39 tcp 1040 [0 0 0 0] ------- [4194306:0 0:1 32 0] [21 0] 0 0
s 10.178520518 _4_ AGT  --- 40 tcp 1040 [0 0 0 0] ------- [4194306:0 0:1 32 0] [22 0] 0 0
r 10.178544 2 1 tcp 1060 ------- 2 1.0.2.0 0.0.0.1 14 27
+ 10.178544 1 0 tcp 1060 ------- 2 1.0.2.0 0.0.0.1 14 27
- 10.178544 1 0 tcp 1060 ------- 2 1.0.2.0 0.0.0.1 14 27
r 10.180587252 _4_ AGT  --- 30 ack 40 [13a 2 0 800] ------- [0:1 4194306:0 29 4194306] [11 0] 1 0
s 10.180587252 _4_ AGT  --- 41 tcp 1040 [0 0 0 0] ------- [4194306:0 0:1 32 0] [23 0] 0 0
s 10.180587252 _4_ AGT  --- 42 tcp 1040 [0 0 0 0] ------- [4194306:0 0:1 32 0] [24 0] 0 0
r 10.18224 1 0 tcp 1060 ------- 2 1.0.2.0 0.0.0.1 14 27
+ 10.18224 0 1 ack 40 ------- 2 0.0.0.1 1.0.2.0 14 43
- 10.18224 0 1 ack 40 ------- 2 0.0.0.1 1.0.2.0 14 43
r 10.184304 0 1 ack 40 ------- 2 0.0.0.1 1.0.2.0 14 43
+ 10.184304 1 2 ack 40 ------- 2 0.0.0.1 1.0.2.0 14 43
- 10.184304 1 2 ack 40 ------- 2 0.0.0.1 1.0.2.0 14 43
r 10.186368 1 2 ack 40 ------- 2 0.0.0.1 1.0.2.0 14 43
+ 10.190633 2 1 tcp 1060 ------- 2 1.0.2.0 0.0.0.1 15 31
- 10.190633 2 1 tcp 1060 ------- 2 1.0.2.0 0.0.0.1 15 31
r 10.192719354 _4_ AGT  --- 35 ack 40 [13a 2 0 800] ------- [0:1 4194306:0 29 4194306] [12 0] 1 0
s 10.192719354 _4_ AGT  --- 44 tcp 1040 [0 0 0 0] ------- [4194306:0 0:1 32 0] [25 0] 0 0
s 10.192719354 _4_ AGT  --- 45 tcp 1040 [0 0 0 0] ------- [4194306:0 0:1 32 0] [26 0] 0 0
r 10.194329 2 1 tcp 1060 ------- 2 1.0.2.0 0.0.0.1 15 31
+ 10.194329 1 0 tcp 1060 ------- 2 1.0.2.0 0.0.0.1 15 31
- 10.194329 1 0 tcp 1060 ------- 2 1.0.2.0 0.0.0.1 15 31
r 10.198025 1 0 tcp 1060 ------- 2 1.0.2.0 0.0.0.1 15 31
+ 10.198025 0 1 ack 40 ------- 2 0.0.0.1 1.0.2.0 15 46
- 10.198025 0 1 ack 40 ------- 2 0.0.0.1 1.0.2.0 15 46
r 10.200089 0 1 ack 40 ------- 2 0.0.0.1 1.0.2.0 15 46
+ 10.200089 1 2 ack 40 ------- 2 0.0.0.1 1.0.2.0 15 46
- 10.200089 1 2 ack 40 ------- 2 0.0.0.1 1.0.2.0 15 46
r 10.202153 1 2 ack 40 ------- 2 0.0.0.1 1.0.2.0 15 46
+ 10.204293 2 1 tcp 1060 ------- 2 1.0.2.0 0.0.0.1 16 32
- 10.204293 2 1 tcp 1060 ------- 2 1.0.2.0 0.0.0.1 16 32
r 10.207989 2 1 tcp 1060 ------- 2 1.0.2.0 0.0.0.1 16 32
+ 10.207989 1 0 tcp 1060 ------- 2 1.0.2.0 0.0.0.1 16 32
- 10.207989 1 0 tcp 1060 ------- 2 1.0.2.0 0.0.0.1 16 32
r 10.211685 1 0 tcp 1060 ------- 2 1.0.2.0 0.0.0.1 16 32
+ 10.211685 0 1 ack 40 ------- 2 0.0.0.1 1.0.2.0 16 47
- 10.211685 0 1 ack 40 ------- 2 0.0.0.1 1.0.2.0 16 47
r 10.213749 0 1 ack 40 ------- 2 0.0.0.1 1.0.2.0 16 47
+ 10.213749 1 2 ack 40 ------- 2 0.0.0.1 1.0.2.0 16 47
- 10.213749 1 2 ack 40 ------- 2 0.0.0.1 1.0.2.0 16 47
+ 10.215626 2 1 tcp 1060 ------- 2 1.0.2.0 0.0.0.1 17 33
- 10.215626 2 1 tcp 1060 ------- 2 1.0.2.0 0.0.0.1 17 33
r 10.215813 1 2 ack 40 ------- 2 0.0.0.1 1.0.2.0 16 47
r 10.217831556 _4_ AGT  --- 36 ack 40 [13a 2 0 800] ------- [0:1 4194306:0 29 4194306] [13 0] 1 0
s 10.217831556 _4_ AGT  --- 48 tcp 1040 [0 0 0 0] ------- [4194306:0 0:1 32 0] [27 0] 0 0
s 10.217831556 _4_ AGT  --- 49 tcp 1040 [0 0 0 0] ------- [4194306:0 0:1 32 0] [28 0] 0 0
r 10.219322 2 1 tcp 1060 ------- 2 1.0.2.0 0.0.0.1 17 33
+ 10.219322 1 0 tcp 1060 ------- 2 1.0.2.0 0.0.0.1 17 33
- 10.219322 1 0 tcp 1060 ------- 2 1.0.2.0 0.0.0.1 17 33
r 10.223018 1 0 tcp 1060 ------- 2 1.0.2.0 0.0.0.1 17 33
+ 10.223018 0 1 ack 40 ------- 2 0.0.0.1 1.0.2.0 17 50
- 10.223018 0 1 ack 40 ------- 2 0.0.0.1 1.0.2.0 17 50
r 10.225082 0 1 ack 40 ------- 2 0.0.0.1 1.0.2.0 17 50
+ 10.225082 1 2 ack 40 ------- 2 0.0.0.1 1.0.2.0 17 50
- 10.225082 1 2 ack 40 ------- 2 0.0.0.1 1.0.2.0 17 50
r 10.227146 1 2 ack 40 ------- 2 0.0.0.1 1.0.2.0 17 50
+ 10.227918 2 1 tcp 1060 ------- 2 1.0.2.0 0.0.0.1 18 34
- 10.227918 2 1 tcp 1060 ------- 2 1.0.2.0 0.0.0.1 18 34
r 10.229783657 _4_ AGT  --- 43 ack 40 [13a 2 0 800] ------- [0:1 4194306:0 29 4194306] [14 0] 1 0
s 10.229783657 _4_ AGT  --- 51 tcp 1040 [0 0 0 0] ------- [4194306:0 0:1 32 0] [29 0] 0 0
s 10.229783657 _4_ AGT  --- 52 tcp 1040 [0 0 0 0] ------- [4194306:0 0:1 32 0] [30 0] 0 0
r 10.231614 2 1 tcp 1060 ------- 2 1.0.2.0 0.0.0.1 18 34
+ 10.231614 1 0 tcp 1060 ------- 2 1.0.2.0 0.0.0.1 18 34
- 10.231614 1 0 tcp 1060 ------- 2 1.0.2.0 0.0.0.1 18 34
r 10.231710391 _4_ AGT  --- 46 ack 40 [13a 2 0 800] ------- [0:1 4194306:0 29 4194306] [15 0] 1 0
s 10.231710391 _4_ AGT  --- 53 tcp 1040 [0 0 0 0] ------- [4194306:0 0:1 32 0] [31 0] 0 0
s 10.231710391 _4_ AGT  --- 54 tcp 1040 [0 0 0 0] ------- [4194306:0 0:1 32 0] [32 0] 0 0
r 10.23531 1 0 tcp 1060 ------- 2 1.0.2.0 0.0.0.1 18 34
+ 10.23531 0 1 ack 40 ------- 2 0.0.0.1 1.0.2.0 18 55
- 10.23531 0 1 ack 40 ------- 2 0.0.0.1 1.0.2.0 18 55
r 10.237374 0 1 ack 40 ------- 2 0.0.0.1 1.0.2.0 18 55
+ 10.237374 1 2 ack 40 ------- 2 0.0.0.1 1.0.2.0 18 55
- 10.237374 1 2 ack 40 ------- 2 0.0.0.1 1.0.2.0 18 55
r 10.239438 1 2 ack 40 ------- 2 0.0.0.1 1.0.2.0 18 55
+ 10.241756 2 1 tcp 1060 ------- 2 1.0.2.0 0.0.0.1 19 37
- 10.241756 2 1 tcp 1060 ------- 2 1.0.2.0 0.0.0.1 19 37
r 10.243622493 _4_ AGT  --- 47 ack 40 [13a 2 0 800] ------- [0:1 4194306:0 29 4194306] [16 0] 1 0
s 10.243622493 _4_ AGT  --- 56 tcp 1040 [0 0 0 0] ------- [4194306:0 0:1 32 0] [33 0] 0 0
s 10.243622493 _4_ AGT  --- 57 tcp 1040 [0 0 0 0] ------- [4194306:0 0:1 32 0] [34 0] 0 0
r 10.245452 2 1 tcp 1060 ------- 2 1.0.2.0 0.0.0.1 19 37
+ 10.245452 1 0 tcp 1060 ------- 2 1.0.2.0 0.0.0.1 19 37
- 10.245452 1 0 tcp 1060 ------- 2 1.0.2.0 0.0.0.1 19 37
r 10.245649227 _4_ AGT  --- 50 ack 40 [13a 2 0 800] ------- [0:1 4194306:0 29 4194306] [17 0] 1 0
s 10.245649227 _4_ AGT  --- 58 tcp 1040 [0 0 0 0] ------- [4194306:0 0:1 32 0] [35 0] 0 0
s 10.245649227 _4_ AGT  --- 59 tcp 1040 [0 0 0 0] ------- [4194306:0 0:1 32 0] [36 0] 0 0
r 10.249148 1 0 tcp 1060 ------- 2 1.0.2.0 0.0.0.1 19 37
+ 10.249148 0 1 ack 40 ------- 2 0.0.0.1 1.0.2.0 19 60
- 10.249148 0 1 ack 40 ------- 2 0.0.0.1 1.0.2.0 19 60
r 10.251212 0 1 ack 40 ------- 2 0.0.0.1 1.0.2.0 19 60
+ 10.251212 1 2 ack 40 ------- 2 0.0.0.1 1.0.2.0 19 60
- 10.251212 1 2 ack 40 ------- 2 0.0.0.1 1.0.2.0 19 60
r 10.253276 1 2 ack 40 ------- 2 0.0.0.1 1.0.2.0 19 60
+ 10.255655 2 1 tcp 1060 ------- 2 1.0.2.0 0.0.0.1 20 38
- 10.255655 2 1 tcp 1060 ------- 2 1.0.2.0 0.0.0.1 20 38
r 10.257541328 _4_ AGT  --- 55 ack 40 [13a 2 0 800] ------- [0:1 4194306:0 29 4194306] [18 0] 1 0
s 10.257541328 _4_ AGT  --- 61 tcp 1040 [0 0 0 0] ------- [4194306:0 0:1 32 0] [37 0] 0 0
s 10.257541328 _4_ AGT  --- 62 tcp 1040 [0 0 0 0] ------- [4194306:0 0:1 32 0] [38 0] 0 0
r 10.259351 2 1 tcp 1060 ------- 2 1.0.2.0 0.0.0.1 20 38
+ 10.259351 1 0 tcp 1060 ------- 2 1.0.2.0 0.0.0.1 20 38
- 10.259351 1 0 tcp 1060 ------- 2 1.0.2.0 0.0.0.1 20 38
r 10.263047 1 0 tcp 1060 ------- 2 1.0.2.0 0.0.0.1 20 38
+ 10.263047 0 1 ack 40 ------- 2 0.0.0.1 1.0.2.0 20 63
- 10.263047 0 1 ack 40 ------- 2 0.0.0.1 1.0.2.0 20 63
r 10.265111 0 1 ack 40 ------- 2 0.0.0.1 1.0.2.0 20 63
+ 10.265111 1 2 ack 40 ------- 2 0.0.0.1 1.0.2.0 20 63
- 10.265111 1 2 ack 40 ------- 2 0.0.0.1 1.0.2.0 20 63
r 10.267175 1 2 ack 40 ------- 2 0.0.0.1 1.0.2.0 20 63
+ 10.267827 2 1 tcp 1060 ------- 2 1.0.2.0 0.0.0.1 21 39
- 10.267827 2 1 tcp 1060 ------- 2 1.0.2.0 0.0.0.1 21 39
r 10.271523 2 1 tcp 1060 ------- 2 1.0.2.0 0.0.0.1 21 39
+ 10.271523 1 0 tcp 1060 ------- 2 1.0.2.0 0.0.0.1 21 39
- 10.271523 1 0 tcp 1060 ------- 2 1.0.2.0 0.0.0.1 21 39
r 10.275219 1 0 tcp 1060 ------- 2 1.0.2.0 0.0.0.1 21 39
+ 10.275219 0 1 ack 40 ------- 2 0.0.0.1 1.0.2.0 21 64
- 10.275219 0 1 ack 40 ------- 2 0.0.0.1 1.0.2.0 21 64
r 10.277283 0 1 ack 40 ------- 2 0.0.0.1 1.0.2.0 21 64
+ 10.277283 1 2 ack 40 ------- 2 0.0.0.1 1.0.2.0 21 64
- 10.277283 1 2 ack 40 ------- 2 0.0.0.1 1.0.2.0 21 64
+ 10.277934 2 1 tcp 1060 ------- 2 1.0.2.0 0.0.0.1 22 40
- 10.277934 2 1 tcp 1060 ------- 2 1.0.2.0 0.0.0.1 22 40
r 10.279347 1 2 ack 40 ------- 2 0.0.0.1 1.0.2.0 21 64
r 10.28163 2 1 tcp 1060 ------- 2 1.0.2.0 0.0.0.1 22 40
+ 10.28163 1 0 tcp 1060 ------- 2 1.0.2.0 0.0.0.1 22 40
- 10.28163 1 0 tcp 1060 ------- 2 1.0.2.0 0.0.0.1 22 40
r 10.285326 1 0 tcp 1060 ------- 2 1.0.2.0 0.0.0.1 22 40
+ 10.285326 0 1 ack 40 ------- 2 0.0.0.1 1.0.2.0 22 65
- 10.285326 0 1 ack 40 ------- 2 0.0.0.1 1.0.2.0 22 65
r 10.28739 0 1 ack 40 ------- 2 0.0.0.1 1.0.2.0 22 65
+ 10.28739 1 2 ack 40 ------- 2 0.0.0.1 1.0.2.0 22 65
- 10.28739 1 2 ack 40 ------- 2 0.0.0.1 1.0.2.0 22 65
+ 10.287981 2 1 tcp 1060 ------- 2 1.0.2.0 0.0.0.1 23 41
- 10.287981 2 1 tcp 1060 ------- 2 1.0.2.0 0.0.0.1 23 41
r 10.289454 1 2 ack 40 ------- 2 0.0.0.1 1.0.2.0 22 65
r 10.289946898 _4_ AGT  --- 60 ack 40 [13a 2 0 800] ------- [0:1 4194306:0 29 4194306] [19 0] 1 0
s 10.289946898 _4_ AGT  --- 66 tcp 1040 [0 0 0 0] ------- [4194306:0 0:1 32 0] [39 0] 0 0
r 10.291677 2 1 tcp 1060 ------- 2 1.0.2.0 0.0.0.1 23 41
+ 10.291677 1 0 tcp 1060 ------- 2 1.0.2.0 0.0.0.1 23 41
- 10.291677 1 0 tcp 1060 ------- 2 1.0.2.0 0.0.0.1 23 41
r 10.291893632 _4_ AGT  --- 63 ack 40 [13a 2 0 800] ------- [0:1 4194306:0 29 4194306] [20 0] 1 0
s 10.291893632 _4_ AGT  --- 67 tcp 1040 [0 0 0 0] ------- [4194306:0 0:1 32 0] [40 0] 0 0
r 10.295373 1 0 tcp 1060 ------- 2 1.0.2.0 0.0.0.1 23 41
+ 10.295373 0 1 ack 40 ------- 2 0.0.0.1 1.0.2.0 23 68
- 10.295373 0 1 ack 40 ------- 2 0.0.0.1 1.0.2.0 23 68
r 10.297437 0 1 ack 40 ------- 2 0.0.0.1 1.0.2.0 23 68
+ 10.297437 1 2 ack 40 ------- 2 0.0.0.1 1.0.2.0 23 68
- 10.297437 1 2 ack 40 ------- 2 0.0.0.1 1.0.2.0 23 68
r 10.299501 1 2 ack 40 ------- 2 0.0.0.1 1.0.2.0 23 68
+ 10.3022 2 1 tcp 1060 ------- 2 1.0.2.0 0.0.0.1 24 42
- 10.3022 2 1 tcp 1060 ------- 2 1.0.2.0 0.0.0.1 24 42
r 10.304305733 _4_ AGT  --- 64 ack 40 [13a 2 0 800] ------- [0:1 4194306:0 29 4194306] [21 0] 1 0
s 10.304305733 _4_ AGT  --- 69 tcp 1040 [0 0 0 0] ------- [4194306:0 0:1 32 0] [41 0] 0 0
r 10.305896 2 1 tcp 1060 ------- 2 1.0.2.0 0.0.0.1 24 42
+ 10.305896 1 0 tcp 1060 ------- 2 1.0.2.0 0.0.0.1 24 42
- 10.305896 1 0 tcp 1060 ------- 2 1.0.2.0 0.0.0.1 24 42
r 10.309592 1 0 tcp 1060 ------- 2 1.0.2.0 0.0.0.1 24 42
+ 10.309592 0 1 ack 40 ------- 2 0.0.0.1 1.0.2.0 24 70
- 10.309592 0 1 ack 40 ------- 2 0.0.0.1 1.0.2.0 24 70
r 10.311656 0 1 ack 40 ------- 2 0.0.0.1 1.0.2.0 24 70
+ 10.311656 1 2 ack 40 ------- 2 0.0.0.1 1.0.2.0 24 70
- 10.311656 1 2 ack 40 ------- 2 0.0.0.1 1.0.2.0 24 70
r 10.31372 1 2 ack 40 ------- 2 0.0.0.1 1.0.2.0 24 70
+ 10.314452 2 1 tcp 1060 ------- 2 1.0.2.0 0.0.0.1 25 44
- 10.314452 2 1 tcp 1060 ------- 2 1.0.2.0 0.0.0.1 25 44
r 10.318148 2 1 tcp 1060 ------- 2 1.0.2.0 0.0.0.1 25 44
+ 10.318148 1 0 tcp 1060 ------- 2 1.0.2.0 0.0.0.1 25 44
- 10.318148 1 0 tcp 1060 ------- 2 1.0.2.0 0.0.0.1 25 44
r 10.321844 1 0 tcp 1060 ------- 2 1.0.2.0 0.0.0.1 25 44
+ 10.321844 0 1 ack 40 ------- 2 0.0.0.1 1.0.2.0 25 71
- 10.321844 0 1 ack 40 ------- 2 0.0.0.1 1.0.2.0 25 71
r 10.323908 0 1 ack 40 ------- 2 0.0.0.1 1.0.2.0 25 71
+ 10.323908 1 2 ack 40 ------- 2 0.0.0.1 1.0.2.0 25 71
- 10.323908 1 2 ack 40 ------- 2 0.0.0.1 1.0.2.0 25 71
+ 10.324739 2 1 tcp 1060 ------- 2 1.0.2.0 0.0.0.1 26 45
- 10.324739 2 1 tcp 1060 ------- 2 1.0.2.0 0.0.0.1 26 45
r 10.325972 1 2 ack 40 ------- 2 0.0.0.1 1.0.2.0 25 71
r 10.326664568 _4_ AGT  --- 65 ack 40 [13a 2 0 800] ------- [0:1 4194306:0 29 4194306] [22 0] 1 0
s 10.326664568 _4_ AGT  --- 72 tcp 1040 [0 0 0 0] ------- [4194306:0 0:1 32 0] [42 0] 0 0
r 10.328435 2 1 tcp 1060 ------- 2 1.0.2.0 0.0.0.1 26 45
+ 10.328435 1 0 tcp 1060 ------- 2 1.0.2.0 0.0.0.1 26 45
- 10.328435 1 0 tcp 1060 ------- 2 1.0.2.0 0.0.0.1 26 45
r 10.332131 1 0 tcp 1060 ------- 2 1.0.2.0 0.0.0.1 26 45
+ 10.332131 0 1 ack 40 ------- 2 0.0.0.1 1.0.2.0 26 73
- 10.332131 0 1 ack 40 ------- 2 0.0.0.1 1.0.2.0 26 73
r 10.334195 0 1 ack 40 ------- 2 0.0.0.1 1.0.2.0 26 73
+ 10.334195 1 2 ack 40 ------- 2 0.0.0.1 1.0.2.0 26 73
- 10.334195 1 2 ack 40 ------- 2 0.0.0.1 1.0.2.0 26 73
r 10.336259 1 2 ack 40 ------- 2 0.0.0.1 1.0.2.0 26 73
+ 10.336871 2 1 tcp 1060 ------- 2 1.0.2.0 0.0.0.1 27 48
- 10.336871 2 1 tcp 1060 ------- 2 1.0.2.0 0.0.0.1 27 48
r 10.338776670 _4_ AGT  --- 68 ack 40 [13a 2 0 800] ------- [0:1 4194306:0 29 4194306] [23 0] 1 0
s 10.338776670 _4_ AGT  --- 74 tcp 1040 [0 0 0 0] ------- [4194306:0 0:1 32 0] [43 0] 0 0
r 10.340567 2 1 tcp 1060 ------- 2 1.0.2.0 0.0.0.1 27 48
+ 10.340567 1 0 tcp 1060 ------- 2 1.0.2.0 0.0.0.1 27 48
- 10.340567 1 0 tcp 1060 ------- 2 1.0.2.0 0.0.0.1 27 48
r 10.340643404 _4_ AGT  --- 70 ack 40 [13a 2 0 800] ------- [0:1 4194306:0 29 4194306] [24 0] 1 0
s 10.340643404 _4_ AGT  --- 75 tcp 1040 [0 0 0 0] ------- [4194306:0 0:1 32 0] [44 0] 0 0
r 10.344263 1 0 tcp 1060 ------- 2 1.0.2.0 0.0.0.1 27 48
+ 10.344263 0 1 ack 40 ------- 2 0.0.0.1 1.0.2.0 27 76
- 10.344263 0 1 ack 40 ------- 2 0.0.0.1 1.0.2.0 27 76
r 10.346327 0 1 ack 40 ------- 2 0.0.0.1 1.0.2.0 27 76
+ 10.346327 1 2 ack 40 ------- 2 0.0.0.1 1.0.2.0 27 76
- 10.346327 1 2 ack 40 ------- 2 0.0.0.1 1.0.2.0 27 76
r 10.348391 1 2 ack 40 ------- 2 0.0.0.1 1.0.2.0 27 76
+ 10.350849 2 1 tcp 1060 ------- 2 1.0.2.0 0.0.0.1 28 49
- 10.350849 2 1 tcp 1060 ------- 2 1.0.2.0 0.0.0.1 28 49
r 10.354545 2 1 tcp 1060 ------- 2 1.0.2.0 0.0.0.1 28 49
+ 10.354545 1 0 tcp 1060 ------- 2 1.0.2.0 0.0.0.1 28 49
- 10.354545 1 0 tcp 1060 ------- 2 1.0.2.0 0.0.0.1 28 49
r 10.358241 1 0 tcp 1060 ------- 2 1.0.2.0 0.0.0.1 28 49
+ 10.358241 0 1 ack 40 ------- 2 0.0.0.1 1.0.2.0 28 77
- 10.358241 0 1 ack 40 ------- 2 0.0.0.1 1.0.2.0 28 77
r 10.360305 0 1 ack 40 ------- 2 0.0.0.1 1.0.2.0 28 77
+ 10.360305 1 2 ack 40 ------- 2 0.0.0.1 1.0.2.0 28 77
- 10.360305 1 2 ack 40 ------- 2 0.0.0.1 1.0.2.0 28 77
+ 10.361056 2 1 tcp 1060 ------- 2 1.0.2.0 0.0.0.1 29 51
- 10.361056 2 1 tcp 1060 ------- 2 1.0.2.0 0.0.0.1 29 51
r 10.362369 1 2 ack 40 ------- 2 0.0.0.1 1.0.2.0 28 77
r 10.363022239 _4_ AGT  --- 71 ack 40 [13a 2 0 800] ------- [0:1 4194306:0 29 4194306] [25 0] 1 0
s 10.363022239 _4_ AGT  --- 78 tcp 1040 [0 0 0 0] ------- [4194306:0 0:1 32 0] [45 0] 0 0
r 10.364752 2 1 tcp 1060 ------- 2 1.0.2.0 0.0.0.1 29 51
+ 10.364752 1 0 tcp 1060 ------- 2 1.0.2.0 0.0.0.1 29 51
- 10.364752 1 0 tcp 1060 ------- 2 1.0.2.0 0.0.0.1 29 51
r 10.368448 1 0 tcp 1060 ------- 2 1.0.2.0 0.0.0.1 29 51
+ 10.368448 0 1 ack 40 ------- 2 0.0.0.1 1.0.2.0 29 79
- 10.368448 0 1 ack 40 ------- 2 0.0.0.1 1.0.2.0 29 79
r 10.370512 0 1 ack 40 ------- 2 0.0.0.1 1.0.2.0 29 79
+ 10.370512 1 2 ack 40 ------- 2 0.0.0.1 1.0.2.0 29 79
- 10.370512 1 2 ack 40 ------- 2 0.0.0.1 1.0.2.0 29 79
r 10.372576 1 2 ack 40 ------- 2 0.0.0.1 1.0.2.0 29 79
+ 10.373048 2 1 tcp 1060 ------- 2 1.0.2.0 0.0.0.1 30 52
- 10.373048 2 1 tcp 1060 ------- 2 1.0.2.0 0.0.0.1 30 52
r 10.374994340 _4_ AGT  --- 73 ack 40 [13a 2 0 800] ------- [0:1 4194306:0 29 4194306] [26 0] 1 0
s 10.374994340 _4_ AGT  --- 80 tcp 1040 [0 0 0 0] ------- [4194306:0 0:1 32 0] [46 0] 0 0
r 10.376744 2 1 tcp 1060 ------- 2 1.0.2.0 0.0.0.1 30 52
+ 10.376744 1 0 tcp 1060 ------- 2 1.0.2.0 0.0.0.1 30 52
- 10.376744 1 0 tcp 1060 ------- 2 1.0.2.0 0.0.0.1 30 52
r 10.38044 1 0 tcp 1060 ------- 2 1.0.2.0 0.0.0.1 30 52
+ 10.38044 0 1 ack 40 ------- 2 0.0.0.1 1.0.2.0 30 81
- 10.38044 0 1 ack 40 ------- 2 0.0.0.1 1.0.2.0 30 81
r 10.382504 0 1 ack 40 ------- 2 0.0.0.1 1.0.2.0 30 81
+ 10.382504 1 2 ack 40 ------- 2 0.0.0.1 1.0.2.0 30 81
- 10.382504 1 2 ack 40 ------- 2 0.0.0.1 1.0.2.0 30 81
r 10.384568 1 2 ack 40 ------- 2 0.0.0.1 1.0.2.0 30 81
+ 10.3853 2 1 tcp 1060 ------- 2 1.0.2.0 0.0.0.1 31 53
- 10.3853 2 1 tcp 1060 ------- 2 1.0.2.0 0.0.0.1 31 53
r 10.387206441 _4_ AGT  --- 76 ack 40 [13a 2 0 800] ------- [0:1 4194306:0 29 4194306] [27 0] 1 0
s 10.387206441 _4_ AGT  --- 82 tcp 1040 [0 0 0 0] ------- [4194306:0 0:1 32 0] [47 0] 0 0
r 10.388996 2 1 tcp 1060 ------- 2 1.0.2.0 0.0.0.1 31 53
+ 10.388996 1 0 tcp 1060 ------- 2 1.0.2.0 0.0.0.1 31 53
- 10.388996 1 0 tcp 1060 ------- 2 1.0.2.0 0.0.0.1 31 53
r 10.392692 1 0 tcp 1060 ------- 2 1.0.2.0 0.0.0.1 31 53
+ 10.392692 0 1 ack 40 ------- 2 0.0.0.1 1.0.2.0 31 83
- 10.392692 0 1 ack 40 ------- 2 0.0.0.1 1.0.2.0 31 83
r 10.394756 0 1 ack 40 ------- 2 0.0.0.1 1.0.2.0 31 83
+ 10.394756 1 2 ack 40 ------- 2 0.0.0.1 1.0.2.0 31 83
- 10.394756 1 2 ack 40 ------- 2 0.0.0.1 1.0.2.0 31 83
r 10.39682 1 2 ack 40 ------- 2 0.0.0.1 1.0.2.0 31 83
+ 10.397232 2 1 tcp 1060 ------- 2 1.0.2.0 0.0.0.1 32 54
- 10.397232 2 1 tcp 1060 ------- 2 1.0.2.0 0.0.0.1 32 54
r 10.399178543 _4_ AGT  --- 77 ack 40 [13a 2 0 800] ------- [0:1 4194306:0 29 4194306] [28 0] 1 0
s 10.399178543 _4_ AGT  --- 84 tcp 1040 [0 0 0 0] ------- [4194306:0 0:1 32 0] [48 0] 0 0
r 10.400928 2 1 tcp 1060 ------- 2 1.0.2.0 0.0.0.1 32 54
+ 10.400928 1 0 tcp 1060 ------- 2 1.0.2.0 0.0.0.1 32 54
- 10.400928 1 0 tcp 1060 ------- 2 1.0.2.0 0.0.0.1 32 54
r 10.401005277 _4_ AGT  --- 79 ack 40 [13a 2 0 800] ------- [0:1 4194306:0 29 4194306] [29 0] 1 0
s 10.401005277 _4_ AGT  --- 85 tcp 1040 [0 0 0 0] ------- [4194306:0 0:1 32 0] [49 0] 0 0
r 10.404624 1 0 tcp 1060 ------- 2 1.0.2.0 0.0.0.1 32 54
+ 10.404624 0 1 ack 40 ------- 2 0.0.0.1 1.0.2.0 32 86
- 10.404624 0 1 ack 40 ------- 2 0.0.0.1 1.0.2.0 32 86
r 10.406688 0 1 ack 40 ------- 2 0.0.0.1 1.0.2.0 32 86
+ 10.406688 1 2 ack 40 ------- 2 0.0.0.1 1.0.2.0 32 86
- 10.406688 1 2 ack 40 ------- 2 0.0.0.1 1.0.2.0 32 86
r 10.408752 1 2 ack 40 ------- 2 0.0.0.1 1.0.2.0 32 86
+ 10.411091 2 1 tcp 1060 ------- 2 1.0.2.0 0.0.0.1 33 56
- 10.411091 2 1 tcp 1060 ------- 2 1.0.2.0 0.0.0.1 33 56
r 10.412977378 _4_ AGT  --- 81 ack 40 [13a 2 0 800] ------- [0:1 4194306:0 29 4194306] [30 0] 1 0
s 10.412977378 _4_ AGT  --- 87 tcp 1040 [0 0 0 0] ------- [4194306:0 0:1 32 0] [50 0] 0 0
r 10.414787 2 1 tcp 1060 ------- 2 1.0.2.0 0.0.0.1 33 56
+ 10.414787 1 0 tcp 1060 ------- 2 1.0.2.0 0.0.0.1 33 56
- 10.414787 1 0 tcp 1060 ------- 2 1.0.2.0 0.0.0.1 33 56
r 10.418483 1 0 tcp 1060 ------- 2 1.0.2.0 0.0.0.1 33 56
+ 10.418483 0 1 ack 40 ------- 2 0.0.0.1 1.0.2.0 33 88